################################################################################
# Symmetry function scaling data.
################################################################################
# Col  Name     Description
################################################################################
# 1    e_index  Element index.
# 2    sf_index Symmetry function index.
# 3    sf_min   Symmetry function minimum.
# 4    sf_max   Symmetry function maximum.
# 5    sf_mean  Symmetry function mean.
# 6    sf_sigma Symmetry function sigma.
#########################################################################################################################
#        1          2                        3                        4                        5                        6
#  e_index   sf_index                   sf_min                   sf_max                  sf_mean                 sf_sigma
#########################################################################################################################
         1          1   1.5689037055265049E-02   7.2688191493093829E-02   3.4047183296519984E-02   6.3070471937511606E-03
         1          2   1.1163522767380350E-01   2.0117215330841612E-01   1.6002715325015304E-01   8.7436960002241215E-03
         1          3   0.0000000000000000E+00   6.3533857738922769E-02   6.3016394129058464E-04   3.8838259852664284E-03
         1          4   1.1732386490337782E-01   3.8032179260394844E-01   1.9857320521683827E-01   2.9039465986263460E-02
         1          5   2.8494440209609728E-01   4.9882488999537039E-01   3.7062408405503816E-01   3.1563808428062917E-02
         1          6   0.0000000000000000E+00   2.1918798949821350E-01   3.6301474605169720E-03   1.9975291895804277E-02
         1          7   2.8650861984640674E-01   1.0616073255730678E+00   5.7106937760285359E-01   9.5842865928889229E-02
         1          8   2.4016145418173943E-01   6.4587024352211475E-01   4.2202319393011362E-01   6.5159064714052417E-02
         1          9   0.0000000000000000E+00   2.7818451619113144E-01   8.6180630067778218E-03   4.1492640965947299E-02
         1         10   3.9423144272887167E-01   1.6710430045088442E+00   1.0015547662981206E+00   1.5702736815128635E-01
         1         11   1.1175695481129334E-01   8.3134128346077774E-01   4.1623791290021450E-01   7.3332683432055137E-02
         1         12   0.0000000000000000E+00   2.0536149626948771E-01   1.0247832805793829E-02   3.8083564067841899E-02
         1         13   5.8091982922040042E-01   1.9228365360172024E+00   1.2248545395537733E+00   1.7251404376111942E-01
         1         14   1.9295913775111920E-01   9.8959157814833809E-01   5.4580260639562972E-01   1.0537183221603749E-01
         1         15   0.0000000000000000E+00   1.4053620444115450E-01   9.9164146673208393E-03   2.7144870297214165E-02
         1         16   6.2599909550512334E-01   1.7308591756425262E+00   1.1626892835876201E+00   1.4388997044686724E-01
         1         17   3.0149183879480451E-01   9.2589788313673527E-01   6.2087965164177095E-01   8.2931485746079725E-02
         1         18   0.0000000000000000E+00   8.7157858809454924E-02   9.4322742751844855E-03   2.2475261582994056E-02
         1         19   5.6267847136072846E-01   1.2079469236715670E+00   8.8065164901967574E-01   8.5612377796065717E-02
         1         20   2.6831603360541945E-01   6.7744467144932041E-01   4.6211344899061008E-01   5.5833087574971130E-02
         1         21   0.0000000000000000E+00   4.7416600825931479E-02   6.8979751141525474E-03   1.3704644072914725E-02
         1         22   3.2050763889391221E-01   6.6099637787200016E-01   4.8909827277428569E-01   4.4971798646612333E-02
         1         23   1.3063436322371461E-01   3.5911365882039487E-01   2.3948680591938237E-01   3.0146170005772334E-02
         1         24   0.0000000000000000E+00   2.1564619679016628E-02   3.7296162404027249E-03   6.5267447155886293E-03
         1         25   1.0894993757410525E-01   2.6058002058097440E-01   1.8782296015070449E-01   1.7871586868757377E-02
         1         26   4.5586641265976488E-02   1.4134946683723648E-01   9.1259963042194137E-02   1.2384555269208269E-02
         1         27   0.0000000000000000E+00   7.6310779965563114E-03   1.4709430598415583E-03   2.4218585591420797E-03
         1         28   2.9288659917291113E-02   6.9155606666116157E-02   4.6728833706809067E-02   4.8070510272950045E-03
         1         29   9.9482427925674192E-03   3.8146397968204619E-02   2.3313936636941077E-02   3.5374300415933588E-03
         1         30   0.0000000000000000E+00   1.8969641462221101E-03   3.7788001894310282E-04   6.1976970391968832E-04
         1         31   6.3578490334761989E-03   7.1056541686540159E-02   2.6639952625580977E-02   7.4372098413655243E-03
         1         32   1.5861118522823413E-02   1.1496643357453781E-01   4.8026510379941094E-02   1.1015037765407255E-02
         1         33   0.0000000000000000E+00   3.4756295551311954E-02   8.3672283269763332E-04   3.5238731187176350E-03
         1         34   2.6267427252378611E-03   3.9962706324760171E-02   1.6857457039985643E-02   4.6409709795933217E-03
         1         35   0.0000000000000000E+00   2.7781986087530956E-02   7.7622019206838799E-04   3.2735354465184734E-03
         1         36   2.1758961919325900E-02   1.4676940334449662E-01   7.0433567515645584E-02   1.5688884684010872E-02
         1         37   8.7813659978553921E-02   3.0541815443816817E-01   1.7401890262387817E-01   2.4898111182850721E-02
         1         38   0.0000000000000000E+00   6.3766365487518684E-02   2.5527582470670257E-03   8.2189209757800360E-03
         1         39   5.3148895384094817E-03   3.6737828245747506E-02   1.6261013740914359E-02   3.5465745728790630E-03
         1         40   0.0000000000000000E+00   1.4673373176797781E-02   7.0206343542874433E-04   1.9229956738250188E-03
         1         41   4.7621535893947400E-04   1.6294375178961758E-02   4.9598104002088134E-03   1.7441637606707121E-03
         1         42   1.1149697425341400E-03   3.1622203221146603E-02   1.3948947863786946E-02   4.4345642158067919E-03
         1         43   0.0000000000000000E+00   1.3528856656474499E-02   2.4535326847168414E-04   1.2425738598131732E-03
         1         44   2.6373227951073436E-04   2.1703468758512128E-02   9.1562813929111486E-03   3.7336967579123313E-03
         1         45   0.0000000000000000E+00   2.3619406342006512E-02   5.0316838321433073E-04   2.5321509532165417E-03
         1         46   1.4051703585432753E-02   7.5778328516447446E-02   3.9295755146856765E-02   7.8836800182408573E-03
         1         47   6.0690767856279207E-02   1.9210155707899576E-01   1.2173186104862080E-01   1.5743614165524843E-02
         1         48   0.0000000000000000E+00   3.6412442249273633E-02   1.6551381174014271E-03   4.9787450228059114E-03
         1         49   2.3374047469065752E-03   1.3366468490944966E-02   6.9354755648480199E-03   1.3940659868645097E-03
         1         50   0.0000000000000000E+00   5.7984101657052719E-03   3.3344739215281739E-04   8.5647014884141393E-04
         2          1   2.6691744237800180E-01   3.7282887149802568E-01   3.2005430650030603E-01   1.3228174563922531E-02
         2          2   1.7334638837605007E-06   1.1122465025437869E-03   1.9945293359710991E-04   1.1340491940018431E-04
         2          3   0.0000000000000000E+00   8.8975859027631897E-04   1.2263002318890079E-05   5.9207486185512284E-05
         2          4   6.2011519125959413E-01   9.3367982809483463E-01   7.4124816811007654E-01   4.1339487933128603E-02
         2          5   1.4466212477721687E-04   2.2908721671256356E-02   5.8741881154195175E-03   2.5933730387671370E-03
         2          6   0.0000000000000000E+00   1.3932003740335593E-02   2.7594859537109838E-04   1.1937631166372747E-03
         2          7   5.1648404909893086E-01   1.2025849155492363E+00   8.4404638786022679E-01   9.1394232503826611E-02
         2          8   4.6746770543063454E-03   1.8302446470877487E-01   6.7677554912950355E-02   2.1875277711289689E-02
         2          9   0.0000000000000000E+00   8.0252604007684913E-02   2.3964388550334098E-03   9.3023545157582509E-03
         2         10   3.5286606213296784E-01   1.3682148247269963E+00   8.3247582580042889E-01   1.2659022788153640E-01
         2         11   5.9438271489603831E-02   6.1798603283465103E-01   3.1459554874093459E-01   6.8090792547418247E-02
         2         12   0.0000000000000000E+00   1.7006307800020659E-01   8.2235277395523408E-03   2.8509966197416376E-02
         2         13   4.7669067127220632E-01   1.8041390225256453E+00   1.0916052127912601E+00   1.7520335547129287E-01
         2         14   2.8612660083862712E-01   1.0307528085406692E+00   6.3328806221251033E-01   9.3516196938259188E-02
         2         15   0.0000000000000000E+00   1.4053627313139047E-01   1.1953405491384564E-02   3.5744086696070820E-02
         2         16   7.2379622317467651E-01   1.7742441047863942E+00   1.2417593032835421E+00   1.4648375742304401E-01
         2         17   3.6147104222446447E-01   1.0210178761373108E+00   6.5019448523589185E-01   9.4263429429987125E-02
         2         18   0.0000000000000000E+00   8.7157850820942587E-02   9.3427584734771061E-03   2.1587137791817781E-02
         2         19   5.9182621062726914E-01   1.2334086907370061E+00   9.2422689798122049E-01   8.6928390420140444E-02
         2         20   2.1951886680038729E-01   6.6108524294188553E-01   4.4703618733470563E-01   5.7907932691524382E-02
         2         21   0.0000000000000000E+00   4.7416587201544028E-02   6.3406324102062367E-03   1.2072028999915399E-02
         2         22   3.1847509711444066E-01   6.3416390416077950E-01   4.7897361183876475E-01   4.3010063884840993E-02
         2         23   1.3613510075842877E-01   3.5230965539873127E-01   2.4163160034585221E-01   2.9870931475664476E-02
         2         24   0.0000000000000000E+00   2.1564618909820820E-02   3.9415146263649427E-03   6.9070912467652781E-03
         2         25   1.0841040331934582E-01   2.5294123145959191E-01   1.8251992608438819E-01   1.7835624310256416E-02
         2         26   4.4404484757641728E-02   1.4509843673287207E-01   9.3947987832405627E-02   1.3242624672257950E-02
         2         27   0.0000000000000000E+00   7.6310776740764648E-03   1.6102292905481293E-03   2.6107894894776187E-03
         2         28   2.7951314613283103E-02   6.5739224233335378E-02   4.6627873273882132E-02   5.0092632579596345E-03
         2         29   9.0590350644643089E-03   3.7032093566461373E-02   2.3144545114218922E-02   3.5511574605826073E-03
         2         30   0.0000000000000000E+00   1.8969624031699296E-03   3.8311506160518830E-04   6.1486134044348446E-04
         2         31   4.5371071231998406E-02   1.6124942981486337E-01   9.6537526954234704E-02   1.4552534187041683E-02
         2         32   7.9100960494197757E-03   5.5460104618466156E-02   2.5573404150033903E-02   6.0062471322546961E-03
         2         33   0.0000000000000000E+00   1.3127149912317124E-02   5.5884754501264928E-04   1.7770983891851498E-03
         2         34   2.4656328280027863E-04   5.2206475936554635E-03   1.7200699530373722E-03   5.9531605923523816E-04
         2         35   0.0000000000000000E+00   2.0312113192261527E-03   8.4050897294594580E-05   2.5300573565750279E-04
         2         36   5.4949895260908176E-02   2.2363545229938589E-01   1.2550788604958457E-01   2.1891645587199995E-02
         2         37   4.0133688717700775E-02   1.9753547141303307E-01   1.0690047897356607E-01   1.9920100601125364E-02
         2         38   0.0000000000000000E+00   4.3215695724625490E-02   2.3977197099816156E-03   7.2798963217581671E-03
         2         39   1.0646409791651944E-03   1.3529374057393247E-02   4.8580304843929721E-03   1.4825566887666111E-03
         2         40   0.0000000000000000E+00   5.2524638223196991E-03   2.7056169126694874E-04   6.8970764619822461E-04
         2         41   8.4217395560595917E-03   4.5455368268796710E-02   2.6306303326661437E-02   4.7166835837523105E-03
         2         42   1.1747813169552003E-03   1.2443422320091747E-02   5.4908570680717523E-03   1.3835410057111961E-03
         2         43   0.0000000000000000E+00   3.7521259024587460E-03   1.0984714400371662E-04   3.8964556587151565E-04
         2         44   5.9368823781871961E-06   5.7817434341720438E-04   1.3551866473520096E-04   6.3829040586245128E-05
         2         45   0.0000000000000000E+00   3.2689697282402248E-04   8.1606619704291742E-06   3.0734031299930822E-05
         2         46   2.4735803560167271E-02   1.0427252637474252E-01   5.7431823204225171E-02   1.0648021761406281E-02
         2         47   3.1567371268390328E-02   1.3898322730435766E-01   8.1260540786955882E-02   1.4055272492521205E-02
         2         48   0.0000000000000000E+00   3.3423881197758888E-02   1.8126399743462890E-03   5.5897805820356921E-03
         2         49   6.2038358225121552E-04   5.8395947112474715E-03   2.3771469212142630E-03   6.6207608507046992E-04
         2         50   0.0000000000000000E+00   2.5038561028887540E-03   1.4825007994874006E-04   3.5192137515153657E-04
         3          1   3.3749628786569362E-02   1.4505493856454402E-01   8.0660984485194834E-02   1.9643846456061573E-02
         3          2   2.2280695472037449E-04   1.6422793039096815E-03   7.8483214840896519E-04   2.7376645450688617E-04
         3          3   2.6988020084082226E-01   6.5244626854674348E-01   4.6465887494617242E-01   7.3820702568953622E-02
         3          4   7.0089969847647081E-03   3.1559941087079275E-02   1.7660710103750296E-02   4.6613569464855169E-03
         3          5   8.1665230976816472E-01   1.4147978752929635E+00   1.1031120648675614E+00   1.1833276831739735E-01
         3          6   8.2722655471984929E-02   2.2379454774792135E-01   1.5337208672213823E-01   2.8553533868656122E-02
         3          7   9.3159647980151861E-01   1.7131218664826648E+00   1.3117225991416104E+00   1.5029955172261228E-01
         3          8   3.5553040947309911E-01   6.8876549921715535E-01   5.2630577533134981E-01   6.6961658214767544E-02
         3          9   8.5887039766621298E-01   1.7119564055288492E+00   1.2693010774170677E+00   1.6206840138582979E-01
         3         10   5.6298053662541547E-01   1.0007765643296198E+00   7.6501795144861229E-01   9.1903130567354552E-02
         3         11   8.0432772509495176E-01   1.6409862501831660E+00   1.2073311072236139E+00   1.4910180585005686E-01
         3         12   3.8372759365025694E-01   8.4300494867243603E-01   5.9793654230253468E-01   8.8543269208160538E-02
         3         13   5.9909873465620833E-01   1.1228036137358743E+00   8.8294081461152607E-01   9.8635207447588288E-02
         3         14   2.2443589981498951E-01   5.6794801817749707E-01   4.0580047425319915E-01   6.0332039857250309E-02
         3         15   3.3032166754040854E-01   5.9467304944563681E-01   4.7739087877154862E-01   4.8983405001452485E-02
         3         16   1.7262046179218404E-01   3.4742304853482137E-01   2.5225693608735639E-01   3.3641775125868370E-02
         3         17   1.4021257993185607E-01   2.4319458957096607E-01   1.8828071165971949E-01   2.1736032487775041E-02
         3         18   6.3202510447890062E-02   1.5303732553136848E-01   1.0305467459508026E-01   1.3386364043060850E-02
         3         19   3.3662189156933524E-02   6.6160699719207253E-02   4.8368642424717161E-02   6.2014488324457712E-03
         3         20   1.3399320372134930E-02   3.5212364529548505E-02   2.4519363942732048E-02   3.7213018918394528E-03
         3         21   3.8889802706364884E-02   1.1626826614288419E-01   7.5841788447284605E-02   1.5363348201419052E-02
         3         22   1.5400079051046050E-02   5.2091684734432396E-02   3.3319085869132840E-02   7.4483247460764620E-03
         3         23   1.4307700972201411E-03   6.6412596480959476E-03   3.6437089367776670E-03   9.6935084528049480E-04
         3         24   7.9642520352195253E-02   1.9898646638973730E-01   1.4108500065765356E-01   2.4855722178447191E-02
         3         25   9.7965422980014372E-02   2.1206404650916130E-01   1.5590121845050012E-01   2.2470478249828254E-02
         3         26   3.2129779694877419E-03   1.3359288779129275E-02   7.7038938971917183E-03   2.0211847156855131E-03
         3         27   7.9748393856138699E-03   2.7477408798009830E-02   1.7649885417269497E-02   3.9812050114430026E-03
         3         28   2.5806004433291700E-03   9.4175028127633908E-03   5.8690724059464574E-03   1.4768343189006134E-03
         3         29   1.8089684379044509E-04   7.7935816656275660E-04   4.2588460164927382E-04   1.2391899864776904E-04
         3         30   4.4510388770930234E-02   9.7932948549785889E-02   7.2703971897849440E-02   1.0728494601413438E-02
         3         31   8.1915682486564056E-02   1.5281795540327034E-01   1.2029887870221453E-01   1.4326543572829344E-02
         3         32   1.5425130460751330E-03   5.8596172295938111E-03   3.3182553292635656E-03   8.2275285319627508E-04
