################################################################################
# Symmetry function scaling data.
################################################################################
# Col  Name     Description
################################################################################
# 1    e_index  Element index.
# 2    sf_index Symmetry function index.
# 3    sf_min   Symmetry function minimum.
# 4    sf_max   Symmetry function maximum.
# 5    sf_mean  Symmetry function mean.
# 6    sf_sigma Symmetry function sigma.
#########################################################################################################################
#        1          2                        3                        4                        5                        6
#  e_index   sf_index                   sf_min                   sf_max                  sf_mean                 sf_sigma
#########################################################################################################################
         1          1   1.3087024941241535E-02   8.1508573941743698E-02   3.2809773366201854E-02   6.8397469173540381E-03
         1          2   0.0000000000000000E+00   1.7316181936566730E-02   1.3053276400287238E-04   6.6837368337948374E-04
         1          3   1.2159686120075112E-01   1.9921992602501915E-01   1.5604817430246823E-01   9.6510630109263324E-03
         1          4   1.0585796895048097E-01   4.5726061230585535E-01   2.0207716483035401E-01   3.6392305319779855E-02
         1          5   0.0000000000000000E+00   1.5645893214146495E-01   2.4228259100560548E-03   9.2581671296824673E-03
         1          6   2.9623864496648544E-01   5.1323892737983234E-01   3.7683787998843971E-01   3.9247106104645754E-02
         1          7   2.5793520116518759E-01   1.1045041783208360E+00   5.8992837880936611E-01   1.2915794797920963E-01
         1          8   0.0000000000000000E+00   6.5251130027726822E-01   2.1351100457136445E-02   5.9899788244957959E-02
         1          9   2.3581953600100794E-01   6.4149449199344433E-01   4.3481926488433337E-01   8.3347112194930198E-02
         1         10   2.5499519377493435E-01   1.7903317013231124E+00   9.7116907561947385E-01   2.3859376767121288E-01
         1         11   0.0000000000000000E+00   1.3543512495717285E+00   9.8000225956047085E-02   1.9334618865035602E-01
         1         12   7.9770098254738173E-02   7.8292019453891892E-01   3.9962068146638591E-01   1.0482837545414692E-01
         1         13   2.7988194263202582E-01   1.9916455790683190E+00   1.0865238588071595E+00   2.9191316814350804E-01
         1         14   0.0000000000000000E+00   1.5607639586958879E+00   2.5623603574254006E-01   3.4610542149077744E-01
         1         15   9.2096412095489064E-02   1.0401569840875078E+00   4.9323910261934006E-01   1.4776859870573728E-01
         1         16   2.8518757514608289E-01   1.8204097912601520E+00   9.7847943516168878E-01   2.7392073139226158E-01
         1         17   0.0000000000000000E+00   1.2815563184703851E+00   4.0354859471086790E-01   3.9325194152030790E-01
         1         18   1.6829273693636959E-01   1.0052236603476972E+00   5.3264574755162664E-01   1.4938653248478048E-01
         1         19   2.7623026373773735E-01   1.2984265573194698E+00   7.0474225957012571E-01   1.9804498639837703E-01
         1         20   0.0000000000000000E+00   8.5987757463390135E-01   3.9616324634150379E-01   3.0743393630967136E-01
         1         21   1.2142865288438301E-01   7.2932301484813888E-01   3.6803134196203086E-01   1.0759043135446493E-01
         1         22   1.3325738764283640E-01   6.9527713640455813E-01   3.6548872986581893E-01   1.0358360240005204E-01
         1         23   0.0000000000000000E+00   4.5488552624844764E-01   2.5121085031428897E-01   1.6650131637028695E-01
         1         24   4.6788244712994663E-02   3.6685388198874008E-01   1.7781333613726835E-01   5.4302051841331217E-02
         1         25   5.3029405106699672E-02   2.7734239726436372E-01   1.3153929705411929E-01   3.7281253320036033E-02
         1         26   0.0000000000000000E+00   1.7574175369288059E-01   1.0425038113441404E-01   6.0970793646818143E-02
         1         27   1.6883655791713942E-02   1.5433414053329159E-01   6.4418641824032410E-02   1.9856173927012225E-02
         1         28   9.7145552119801935E-03   7.3237090298192808E-02   3.1263225173213310E-02   8.8059687636083319E-03
         1         29   0.0000000000000000E+00   4.5783603070526625E-02   2.7033626122108152E-02   1.4266605235393153E-02
         1         30   3.6520008686782590E-03   4.0867110409619350E-02   1.5800712961812860E-02   4.8888609670372689E-03
         1         31   2.5340437711833374E-03   7.9506385781947644E-02   2.6162740633716937E-02   1.0950357126040769E-02
         1         32   0.0000000000000000E+00   3.2704231532443763E-02   3.3457236707557453E-03   4.3037004245144207E-03
         1         33   7.5208112597075095E-03   1.1264196604589544E-01   4.7177343041403336E-02   1.6852483945872354E-02
         1         34   0.0000000000000000E+00   4.2893663778432747E-02   2.1421645605961739E-03   4.2319017582379860E-03
         1         35   0.0000000000000000E+00   4.8042189263751187E-02   4.3090971318424202E-03   6.2584021439741344E-03
         1         36   7.0048613288751637E-04   4.0604158514885129E-02   1.6819274043493114E-02   6.6253319635281912E-03
         1         37   1.1819879745295034E-02   1.7822720206672601E-01   6.9314485013053762E-02   2.4229219623207052E-02
         1         38   0.0000000000000000E+00   3.6498151602592788E-02   5.4955194232255040E-03   5.2974671305115531E-03
         1         39   6.6642885256561382E-02   3.2442721929850826E-01   1.7175656484872420E-01   3.9682504533964186E-02
         1         40   0.0000000000000000E+00   2.0013606805433626E-01   1.7487183529227172E-02   2.7634589521278025E-02
         1         41   0.0000000000000000E+00   2.8195960060645956E-02   4.4274229590728137E-03   4.3460425379472974E-03
         1         42   2.9633004583995465E-03   3.7886502814590647E-02   1.6090570967723407E-02   5.1803556119257924E-03
         1         43   6.1547627589902138E-05   1.7799148332154093E-02   4.9021934759210239E-03   2.5822712403647755E-03
         1         44   0.0000000000000000E+00   1.6607108185751587E-02   7.5583945932490408E-04   1.5874771510865204E-03
         1         45   4.6096789354352559E-05   3.5729531994908435E-02   1.3870650139935355E-02   6.7050712834743837E-03
         1         46   0.0000000000000000E+00   1.6550440329464937E-03   2.6374134767213541E-05   8.3788598372168009E-05
         1         47   0.0000000000000000E+00   3.1267963658542272E-02   1.5215164858646869E-03   3.5991393009339400E-03
         1         48   7.8535861186792504E-06   2.2765854910205476E-02   9.4952499404688008E-03   4.8361280623084660E-03
         1         49   7.4848790276921071E-03   9.3246499016226003E-02   3.8648079379211282E-02   1.2602888684660443E-02
         1         50   0.0000000000000000E+00   2.0512467791334338E-02   2.3036730713214232E-03   2.5009981346537369E-03
         1         51   4.9968803336196480E-02   2.0664806364644456E-01   1.2015436976329902E-01   2.5824414383374260E-02
         1         52   0.0000000000000000E+00   1.2574139253923880E-01   1.2946944460844345E-02   1.9343339973714058E-02
         1         53   0.0000000000000000E+00   1.1881622581166172E-02   1.4840783831833390E-03   1.5442216614851463E-03
         1         54   1.3547619268533184E-03   1.5419773188649614E-02   7.0121731985975481E-03   2.1078125984876641E-03
         2          1   2.2249043890264101E-14   1.2181577617528480E-02   5.8921039306852112E-05   2.9689070983972179E-04
         2          2   1.1172944316345797E-01   1.6642226986742820E-01   1.3575820723196103E-01   6.0232472483688782E-03
         2          3   4.9657152800823623E-17   3.9974552119818500E-04   1.6698706573062573E-06   7.5260096894661014E-06
         2          4   2.2251113192226238E-11   8.4429468186471485E-02   1.0936366955114133E-03   3.4835719299038028E-03
         2          5   5.3369965019658583E-01   6.6761527937858833E-01   5.9621881151151435E-01   1.4795410916588168E-02
         2          6   9.0951502757298089E-14   7.7441590472524854E-03   7.7220725058043399E-05   2.1930184123473303E-04
         2          7   8.3226949449638770E-09   2.2017641536195787E-01   9.6376495119018628E-03   1.8223767216645204E-02
         2          8   1.1355465048649105E+00   1.2780037742200372E+00   1.2080673249610614E+00   1.5727807701291879E-02
         2          9   6.1530113758659465E-11   5.5193625105625928E-02   1.5068959164617191E-03   2.7382515921565696E-03
         2         10   1.1677713062637571E-06   2.7328994563555226E-01   4.4236213105160155E-02   4.5618864125631514E-02
         2         11   1.4875767378538496E+00   1.6577323816814100E+00   1.5769863551607308E+00   1.9136007736763321E-02
         2         12   1.5388157067970280E-08   1.4484103484482322E-01   1.2747523866585996E-02   1.4609410181598559E-02
         2         13   6.1674722751584282E-05   4.1651172942752773E-01   1.1566209946711882E-01   6.3824454428285368E-02
         2         14   1.4234498461654530E+00   1.4992126367124949E+00   1.4621036780375631E+00   9.0370204502986558E-03
         2         15   1.4243423474487803E-06   2.2329492328230710E-01   4.8954719006090712E-02   3.3318530837770102E-02
         2         16   1.0337403711565051E-03   4.8158700072858790E-01   1.8215735177921127E-01   6.0749186066311765E-02
         2         17   9.2848940192356233E-01   1.0100209591097753E+00   9.7033965112170717E-01   9.4372360600476247E-03
         2         18   4.8879734379926381E-05   2.6100814856594123E-01   9.1965719963929493E-02   3.5544349228912246E-02
         2         19   6.7919616676733767E-03   3.5511261662149779E-01   1.7882368758470660E-01   4.2466918734981145E-02
         2         20   5.9037949104041854E-01   6.4617848412515810E-01   6.1912842020082481E-01   6.4369980716397351E-03
         2         21   6.2359836209857286E-04   2.1033392292608294E-01   9.3999624826320100E-02   2.5894875037822420E-02
         2         22   1.8039774093418972E-02   2.0858102348726240E-01   1.1339378660019990E-01   2.3141272498102723E-02
         2         23   3.1996978185089792E-01   3.4982591863273621E-01   3.3468795275373098E-01   3.5030900637141611E-03
         2         24   2.9707266507593704E-03   1.2582038639234552E-01   5.8546105001357970E-02   1.5390349122799060E-02
         2         25   1.1634807031701267E-02   8.9695471536014079E-02   4.7057463706506333E-02   9.2479068443967090E-03
         2         26   1.2072067979678100E-01   1.2974443060923910E-01   1.2528071700877805E-01   1.0503145641820714E-03
         2         27   2.1863751296176581E-03   4.9597973835824941E-02   2.3631022557992064E-02   6.2504365918982507E-03
         2         28   1.8743100641039707E-03   2.2931840556171583E-02   1.2202678457896044E-02   2.4996385122411455E-03
         2         29   2.7074631188935060E-02   2.9025787883109892E-02   2.8082554275036888E-02   2.3356652465388823E-04
         2         30   6.7703057145694395E-04   1.4467601227832843E-02   6.0101204327056446E-03   1.7387398628947420E-03
         2         31   9.1335363615811293E-08   1.4944879908130732E-03   1.6214996085821162E-04   1.2940176073947821E-04
         2         32   2.7890701889346458E-05   4.4553963598018026E-02   6.2160547221669247E-03   4.6006043591415033E-03
         2         33   3.7431230361054107E-08   1.2062746437704311E-03   1.5459586537037209E-04   1.1517666763474099E-04
         2         34   8.5357564218133133E-02   1.1454898530822166E-01   9.8248780597159871E-02   3.0327715088846593E-03
         2         35   3.2201858573046502E-06   1.4732818513841343E-02   2.2869262851701621E-03   1.5543595704226622E-03
         2         36   2.0162376581352776E-09   3.4654866858785280E-04   2.6249393379796364E-05   2.2659313748194171E-05
         2         37   1.1094881314260118E-06   1.3344962923921969E-02   1.8332694874361674E-03   1.3094061208644740E-03
         2         38   7.3504698442854272E-05   5.2501031675122788E-02   1.1504884525590262E-02   6.8841083241161713E-03
         2         39   2.0787971009818513E-06   1.9696039611645112E-02   3.7889722312233120E-03   2.4814027552022087E-03
         2         40   2.1879529956844712E-01   2.6979935416786360E-01   2.4402238443724741E-01   5.5343202158980856E-03
         2         41   1.5792774255681684E-05   1.9071393707875608E-02   4.0256459984461986E-03   2.2110892717089070E-03
         2         42   2.5112578638091481E-08   1.5300522918421811E-03   1.7496647092727597E-04   1.3504156196841784E-04
         2         43   7.1696276191961728E-11   3.3941062122376470E-05   8.0468534977262450E-07   1.1640523694315935E-06
         2         44   7.0476343426117809E-07   5.0380645572710974E-03   6.2174933007074547E-04   5.3892498667335433E-04
         2         45   2.7626022613941555E-11   1.1936349944805402E-05   6.1164615273973337E-07   6.9630461557759740E-07
         2         46   2.4812035802750057E-02   3.6560594878404719E-02   3.0141080892892788E-02   1.2041812547661970E-03
         2         47   3.7591387247167281E-08   1.7346357726786203E-03   2.1044472747736790E-04   1.6817817274104250E-04
         2         48   1.1011908290165757E-12   4.4295706290477337E-06   1.1108698520080288E-07   1.3504650971368434E-07
         2         49   8.8499127178213592E-07   1.0398115325567531E-02   1.4583075188384757E-03   1.0376617450737141E-03
         2         50   2.6708527905142583E-05   1.8141097708978572E-02   4.0782870362225014E-03   2.3012169942721143E-03
         2         51   1.9784600379260141E-06   1.8679226551905913E-02   3.4161329626194942E-03   2.2366709943847938E-03
         2         52   1.4271652024795611E-01   1.7356242576748737E-01   1.5811230509423366E-01   3.4383453009392407E-03
         2         53   9.3405970405870644E-06   5.6175363958600438E-03   1.2982598557959798E-03   6.4715569198880844E-04
         2         54   1.9939175958924084E-08   9.8645506025474218E-04   1.1668399223838307E-04   8.7419930427536731E-05
         3          1   2.5482745053625006E-01   3.7429449590757025E-01   3.1209634860493646E-01   1.5043836576421365E-02
         3          2   0.0000000000000000E+00   6.5904253156279528E-04   7.3988115277569529E-06   2.4533163059155209E-05
         3          3   1.2728925461434816E-06   1.4974810187865673E-03   2.7884851071301479E-04   1.6277886203550313E-04
         3          4   6.2308714838066437E-01   9.4474550406287106E-01   7.5367575997687952E-01   4.9167120793133144E-02
         3          5   0.0000000000000000E+00   1.5285298352917786E-02   3.4214721256486925E-04   8.0228084429839882E-04
         3          6   9.6431293675217471E-05   2.7116294140218353E-02   7.4589703763549287E-03   3.4599929522581706E-03
         3          7   5.0673103814942122E-01   1.2988323719166979E+00   8.6963852976866707E-01   1.1002772600517052E-01
         3          8   0.0000000000000000E+00   1.4219801188411610E-01   6.6767080606303869E-03   1.1568423697940620E-02
         3          9   2.8208676957266155E-03   2.0500360240351312E-01   7.7605834976957860E-02   2.7586920698350292E-02
         3         10   3.3315718767605296E-01   1.5016407078331684E+00   7.9924136293277193E-01   1.6612550606212417E-01
         3         11   0.0000000000000000E+00   5.8265366506896421E-01   5.6481336516565631E-02   7.5051422637193471E-02
         3         12   3.2892975486279979E-02   6.3261032575893528E-01   3.2355175939711184E-01   8.5767181199283282E-02
         3         13   3.8093844517744124E-01   2.0164347551028330E+00   9.8647820523868013E-01   2.5431895035281615E-01
         3         14   0.0000000000000000E+00   1.0911442055634677E+00   2.1690706267314050E-01   2.2815062205339653E-01
         3         15   1.6000569345137503E-01   1.0551433060720121E+00   5.8275531049771023E-01   1.3253308214779760E-01
         3         16   4.9271343045608273E-01   1.8765270685077953E+00   1.0652914951032533E+00   2.8071039840295281E-01
         3         17   0.0000000000000000E+00   1.1473644699938048E+00   4.0747888230171853E-01   3.5180512672632563E-01
         3         18   2.2812689419393573E-01   1.0478957736114372E+00   5.4603351663830479E-01   1.4640036258764136E-01
         3         19   3.2092956035890141E-01   1.3191536855412522E+00   7.3606268392406171E-01   2.0072511263321166E-01
         3         20   0.0000000000000000E+00   8.3610459214407240E-01   4.1649064538431063E-01   3.0812802380882143E-01
         3         21   1.2549675193062015E-01   7.0600059768090728E-01   3.5767069940427382E-01   1.0817615842444171E-01
         3         22   1.5107966723509614E-01   6.9607107824719749E-01   3.5562667227453665E-01   9.9807787449359198E-02
         3         23   0.0000000000000000E+00   4.4970130437431333E-01   2.5940428062140131E-01   1.7111402737917328E-01
         3         24   7.1656821012046984E-02   3.7715528242880242E-01   1.8446445134029163E-01   5.6296346966423709E-02
         3         25   5.2284636533976886E-02   2.6976739029710878E-01   1.2883728364806477E-01   3.6028547714485278E-02
         3         26   0.0000000000000000E+00   1.7087198724019567E-01   1.0470360764156485E-01   6.3006288458752488E-02
         3         27   2.2595878150119833E-02   1.5510529199709919E-01   6.6532919178938138E-02   1.9863363333032440E-02
         3         28   1.2418009456246945E-02   6.9080084214772977E-02   3.1601425923625713E-02   8.6722271460658688E-03
         3         29   0.0000000000000000E+00   4.3015529963924916E-02   2.6629456686449626E-02   1.4733533980738029E-02
         3         30   3.7900715032642262E-03   4.0853511597508489E-02   1.5212599680651379E-02   4.5137045131536015E-03
         3         31   4.2923974429750038E-02   1.7496461028542387E-01   9.5175533173211424E-02   2.0205322994439365E-02
         3         32   0.0000000000000000E+00   4.5158706224159656E-02   6.1913953612738005E-03   6.5355540224688495E-03
         3         33   3.6820176343948198E-03   5.9057405438174573E-02   2.5334849512755858E-02   8.5598486341684071E-03
         3         34   0.0000000000000000E+00   1.1521133391451962E-02   1.2649728133309860E-03   1.5053861115499306E-03
         3         35   0.0000000000000000E+00   4.9174242526215496E-03   5.8718856392102597E-04   5.7274243086947367E-04
         3         36   1.2994280168572055E-04   5.7940740215780308E-03   1.7232605014231262E-03   8.3396059664086748E-04
         3         37   4.7704764867774446E-02   2.7541238646734428E-01   1.2375837471691613E-01   3.2057114095847342E-02
         3         38   0.0000000000000000E+00   6.6810969176211848E-02   1.1281644820556665E-02   1.1519973867418570E-02
         3         39   2.2844447289068610E-02   2.2954545310173102E-01   1.0630453053211020E-01   2.9704475932730300E-02
         3         40   0.0000000000000000E+00   8.2085552820308258E-02   1.2719802707296028E-02   1.3577066596322396E-02
         3         41   0.0000000000000000E+00   6.3461814674671355E-03   1.1958935567078000E-03   1.0630142844033810E-03
         3         42   4.8519241621775157E-04   1.6158220183368155E-02   4.8315731409696938E-03   2.1415377513357083E-03
         3         43   6.5224115162104673E-03   4.7681025183720464E-02   2.5744641837531914E-02   6.3794784252095196E-03
         3         44   0.0000000000000000E+00   1.5514388110215355E-02   1.3191248370796019E-03   1.7412266698328491E-03
         3         45   6.7797739800408777E-04   1.2878233016218097E-02   5.4495721836174604E-03   1.9317830212095507E-03
         3         46   0.0000000000000000E+00   1.5904113534717909E-04   7.8122292889090441E-06   1.2440649320549900E-05
         3         47   0.0000000000000000E+00   9.0828393332377457E-04   5.4187622932064440E-05   6.6988402969108755E-05
         3         48   1.9254999501574182E-06   7.0896378331713008E-04   1.5096362933649966E-04   9.0559367861952594E-05
         3         49   1.8005082552076813E-02   1.3092917840300861E-01   5.6735593234561114E-02   1.6401922705426314E-02
         3         50   0.0000000000000000E+00   4.1485889428406184E-02   5.2528763783761248E-03   6.6370336074026703E-03
         3         51   1.8640224587241228E-02   1.6078860222764449E-01   8.1344531171295156E-02   2.1204264204183490E-02
         3         52   0.0000000000000000E+00   5.8489885967418505E-02   9.8495857479598999E-03   1.0274137734007104E-02
         3         53   0.0000000000000000E+00   2.3355509678272646E-03   4.5748389647279542E-04   3.9689628787248013E-04
         3         54   3.0702097696485052E-04   7.5922773308217334E-03   2.4066902194723847E-03   1.0124316707872465E-03
